<?xml version="1.0" encoding="UTF-8"?>

<!-- generated on 2025-11-29T07:07:41.735091+01:00 by Eclipse SUMO sumo 1.25.0
<sumoConfiguration xmlns:xsi="http://www.w3.org/2001/XMLSchema-instance" xsi:noNamespaceSchemaLocation="http://sumo.dlr.de/xsd/sumoConfiguration.xsd">

    <input>
        <net-file value="/Users/rares/Documents/TUM Documents/WiSe 2025-2026/TOMfoolery_final/final-HN-traffic-simulator/network/sumo/heilbronn.net.xml"/>
        <route-files value="/Users/rares/Documents/TUM Documents/WiSe 2025-2026/TOMfoolery_final/final-HN-traffic-simulator/intermediate/bus/sumo_routes_connected.rou.xml,/Users/rares/Documents/TUM Documents/WiSe 2025-2026/TOMfoolery_final/final-HN-traffic-simulator/intermediate/car/evening.xml"/>
        <additional-files value="/Users/rares/Documents/TUM Documents/WiSe 2025-2026/TOMfoolery_final/final-HN-traffic-simulator/intermediate/bus/sumo_stops_filtered.add.xml"/>
    </input>

    <output>
        <emission-output value="/Users/rares/Documents/TUM Documents/WiSe 2025-2026/TOMfoolery_final/final-HN-traffic-simulator/results/emissions.xml"/>
        <fcd-output value="/Users/rares/Documents/TUM Documents/WiSe 2025-2026/TOMfoolery_final/final-HN-traffic-simulator/results/trace.xml"/>
        <summary-output value="/Users/rares/Documents/TUM Documents/WiSe 2025-2026/TOMfoolery_final/final-HN-traffic-simulator/results/summary.xml"/>
        <tripinfo-output value="/Users/rares/Documents/TUM Documents/WiSe 2025-2026/TOMfoolery_final/final-HN-traffic-simulator/results/tripinfo.xml"/>
        <edgedata-output value="/Users/rares/Documents/TUM Documents/WiSe 2025-2026/TOMfoolery_final/final-HN-traffic-simulator/results/edgedata.xml"/>
    </output>

    <time>
        <begin value="57600"/>
        <end value="68400"/>
        <step-length value="0.5"/>
    </time>

    <report>
        <xml-validation value="never"/>
        <no-step-log value="true"/>
    </report>

    <traci_server>
        <remote-port value="64077"/>
    </traci_server>

</sumoConfiguration>
-->

<meandata xmlns:xsi="http://www.w3.org/2001/XMLSchema-instance" xsi:noNamespaceSchemaLocation="http://sumo.dlr.de/xsd/meandata_file.xsd">
    <interval begin="57600.00" end="57779.00" id="DEFAULT_EDGEDATA">
        <edge id="-1052540468" sampledSeconds="2.13" traveltime="1.43" overlapTraveltime="2.13" density="0.80" overlapDensity="1.19" laneDensity="0.80" occupancy="0.40" waitingTime="0.00" timeLoss="0.11" speed="7.04" speedRelative="0.85" departed="0" arrived="0" entered="1" left="1" laneChangedFrom="0" laneChangedTo="0" flow="20.19"/>
        <edge id="-106509789#0" sampledSeconds="1.84" traveltime="0.03" overlapTraveltime="0.61" density="2.17" overlapDensity="51.40" laneDensity="2.17" occupancy="0.99" waitingTime="0.00" timeLoss="0.49" speed="8.48" speedRelative="0.76" departed="0" arrived="0" entered="3" left="3" laneChangedFrom="0" laneChangedTo="0" flow="66.24"/>
        <edge id="-106509789#1" sampledSeconds="2.98" traveltime="0.02" overlapTraveltime="1.01" density="0.99" overlapDensity="83.29" laneDensity="0.99" occupancy="1.63" waitingTime="0.00" timeLoss="1.65" speed="5.16" speedRelative="0.46" departed="1" arrived="0" entered="2" left="3" laneChangedFrom="0" laneChangedTo="0" flow="18.44"/>
        <edge id="-106509789#2" sampledSeconds="21.24" traveltime="6.50" overlapTraveltime="7.08" density="1.60" overlapDensity="1.74" laneDensity="1.60" occupancy="0.81" waitingTime="0.00" timeLoss="0.92" speed="10.33" speedRelative="0.93" departed="0" arrived="0" entered="3" left="3" laneChangedFrom="0" laneChangedTo="0" flow="59.44"/>
        <edge id="-106525769#3" sampledSeconds="1.39" traveltime="0.05" overlapTraveltime="1.39" density="1.46" overlapDensity="38.77" laneDensity="1.46" occupancy="0.75" waitingTime="0.00" timeLoss="0.19" speed="3.75" speedRelative="0.45" departed="0" arrived="0" entered="1" left="1" laneChangedFrom="0" laneChangedTo="0" flow="19.63"/>
        <edge id="-106525769#4" sampledSeconds="3.48" traveltime="2.46" overlapTraveltime="3.42" density="0.64" overlapDensity="0.88" laneDensity="0.64" occupancy="0.33" waitingTime="0.00" timeLoss="0.49" speed="7.93" speedRelative="0.95" departed="0" arrived="0" entered="2" left="1" laneChangedFrom="0" laneChangedTo="0" flow="18.15"/>
        <edge id="-106684765#0" sampledSeconds="2.08" traveltime="0.03" overlapTraveltime="0.69" density="2.23" overlapDensity="58.04" laneDensity="2.23" occupancy="1.12" waitingTime="0.00" timeLoss="0.08" speed="7.51" speedRelative="0.90" departed="0" arrived="0" entered="3" left="3" laneChangedFrom="0" laneChangedTo="0" flow="60.17"/>
        <edge id="-106684765#1" sampledSeconds="17.75" traveltime="5.25" overlapTraveltime="5.92" density="2.23" overlapDensity="2.51" laneDensity="2.23" occupancy="1.12" waitingTime="0.00" timeLoss="0.66" speed="7.51" speedRelative="0.90" departed="0" arrived="0" entered="3" left="3" laneChangedFrom="0" laneChangedTo="0" flow="60.30"/>
        <edge id="-106684765#2" sampledSeconds="8.44" traveltime="2.43" overlapTraveltime="3.08" density="2.43" overlapDensity="3.18" laneDensity="2.43" occupancy="1.29" waitingTime="0.00" timeLoss="1.55" speed="6.44" speedRelative="0.77" departed="1" arrived="0" entered="2" left="3" laneChangedFrom="0" laneChangedTo="0" flow="56.33"/>
        <edge id="-106684765#3" sampledSeconds="9.84" traveltime="4.72" overlapTraveltime="5.32" density="1.67" overlapDensity="1.91" laneDensity="1.67" occupancy="0.87" waitingTime="0.00" timeLoss="2.32" speed="6.33" speedRelative="0.76" departed="1" arrived="0" entered="1" left="2" laneChangedFrom="0" laneChangedTo="0" flow="38.16"/>
        <edge id="-106684765#4" sampledSeconds="5.63" traveltime="5.02" overlapTraveltime="5.63" density="0.69" overlapDensity="0.78" laneDensity="0.69" occupancy="0.35" waitingTime="0.00" timeLoss="0.25" speed="8.09" speedRelative="0.97" departed="0" arrived="0" entered="1" left="1" laneChangedFrom="0" laneChangedTo="0" flow="20.16"/>
        <edge id="-106684765#5" sampledSeconds="4.44" traveltime="4.97" overlapTraveltime="5.46" density="0.96" overlapDensity="1.11" laneDensity="0.96" occupancy="0.52" waitingTime="0.00" timeLoss="1.82" speed="4.99" speedRelative="0.60" departed="1" arrived="0" entered="0" left="1" laneChangedFrom="0" laneChangedTo="0" flow="17.28"/>
        <edge id="-107221737#0" sampledSeconds="7.98" traveltime="1.97" overlapTraveltime="2.69" density="1.62" overlapDensity="2.18" laneDensity="1.62" occupancy="1.17" waitingTime="0.00" timeLoss="0.26" speed="10.43" speedRelative="0.94" departed="0" arrived="0" entered="3" left="3" laneChangedFrom="0" laneChangedTo="0" flow="60.71"/>
        <edge id="-107221737#1" sampledSeconds="23.29" traveltime="5.21" overlapTraveltime="5.85" density="2.06" overlapDensity="2.30" laneDensity="2.06" occupancy="1.39" waitingTime="0.00" timeLoss="0.53" speed="10.82" speedRelative="0.97" departed="0" arrived="0" entered="4" left="4" laneChangedFrom="0" laneChangedTo="0" flow="80.35"/>
        <edge id="-107221737#2" sampledSeconds="27.48" traveltime="6.24" overlapTraveltime="6.88" density="2.11" overlapDensity="2.32" laneDensity="2.11" occupancy="1.41" waitingTime="0.00" timeLoss="1.16" speed="10.61" speedRelative="0.95" departed="0" arrived="0" entered="4" left="4" laneChangedFrom="0" laneChangedTo="0" flow="80.59"/>
        <edge id="-107221737#3" sampledSeconds="7.65" traveltime="3.07" overlapTraveltime="3.86" density="0.99" overlapDensity="1.24" laneDensity="0.99" occupancy="0.85" waitingTime="0.00" timeLoss="0.21" speed="11.24" speedRelative="1.01" departed="0" arrived="0" entered="2" left="2" laneChangedFrom="0" laneChangedTo="0" flow="40.20"/>
        <edge id="-107221737#4" sampledSeconds="1.76" traveltime="0.02" overlapTraveltime="0.97" density="1.34" overlapDensity="49.13" laneDensity="1.34" occupancy="0.96" waitingTime="0.00" timeLoss="0.23" speed="9.89" speedRelative="0.89" departed="0" arrived="0" entered="2" left="2" laneChangedFrom="0" laneChangedTo="0" flow="47.88"/>
        <edge id="-107221737#5" sampledSeconds="4.95" traveltime="2.00" overlapTraveltime="2.78" density="1.62" overlapDensity="2.67" laneDensity="1.62" occupancy="1.28" waitingTime="0.00" timeLoss="2.09" speed="6.60" speedRelative="0.59" departed="1" arrived="0" entered="1" left="2" laneChangedFrom="0" laneChangedTo="0" flow="38.52"/>
        <edge id="-107221737#6" sampledSeconds="3.31" traveltime="2.02" overlapTraveltime="3.31" density="0.83" overlapDensity="1.35" laneDensity="0.83" occupancy="0.84" waitingTime="0.00" timeLoss="1.00" speed="7.76" speedRelative="0.70" departed="0" arrived="0" entered="1" left="1" laneChangedFrom="0" laneChangedTo="0" flow="23.07"/>
        <edge id="-107221737#7" sampledSeconds="4.87" overlapTraveltime="7.13" density="1.00" overlapDensity="4.88" laneDensity="1.00" occupancy="2.43" waitingTime="0.50" timeLoss="3.29" speed="2.46" speedRelative="0.22" departed="1" arrived="0" entered="0" left="1" laneChangedFrom="0" laneChangedTo="0" flow="8.90"/>
        <edge id="-1208428040#0" sampledSeconds="0.91" traveltime="0.31" overlapTraveltime="0.91" density="0.64" overlapDensity="1.88" laneDensity="0.64" occupancy="0.33" waitingTime="0.00" timeLoss="0.02" speed="8.48" speedRelative="1.02" departed="0" arrived="0" entered="1" left="1" laneChangedFrom="0" laneChangedTo="0" flow="19.65"/>
        <edge id="-1208428040#1" sampledSeconds="4.21" traveltime="3.62" overlapTraveltime="4.21" density="0.86" overlapDensity="1.00" laneDensity="0.86" occupancy="0.39" waitingTime="0.00" timeLoss="0.92" speed="6.80" speedRelative="0.82" departed="0" arrived="0" entered="1" left="1" laneChangedFrom="0" laneChangedTo="0" flow="20.95"/>
        <edge id="-1214971411#0" sampledSeconds="6.38" traveltime="1.74" overlapTraveltime="2.13" density="1.51" overlapDensity="1.84" laneDensity="1.51" occupancy="0.72" waitingTime="0.00" timeLoss="1.54" speed="11.48" speedRelative="0.83" departed="0" arrived="0" entered="3" left="3" laneChangedFrom="0" laneChangedTo="0" flow="62.24"/>
        <edge id="-1214971411#1" sampledSeconds="3.24" traveltime="0.32" overlapTraveltime="1.29" density="0.75" overlapDensity="3.83" laneDensity="0.75" occupancy="1.10" waitingTime="0.00" timeLoss="1.63" speed="7.54" speedRelative="0.54" departed="1" arrived="0" entered="2" left="3" laneChangedFrom="0" laneChangedTo="0" flow="20.35"/>
        <edge id="-1214971411#2" sampledSeconds="2.62" traveltime="0.97" overlapTraveltime="1.31" density="0.74" overlapDensity="1.00" laneDensity="0.74" occupancy="0.37" waitingTime="0.00" timeLoss="0.06" speed="14.93" speedRelative="1.08" departed="0" arrived="0" entered="2" left="2" laneChangedFrom="0" laneChangedTo="0" flow="40.03"/>
        <edge id="-1214971411#3" sampledSeconds="1.73" traveltime="0.53" overlapTraveltime="0.87" density="0.75" overlapDensity="1.22" laneDensity="0.75" occupancy="0.37" waitingTime="0.00" timeLoss="0.04" speed="14.95" speedRelative="1.08" departed="0" arrived="0" entered="2" left="2" laneChangedFrom="0" laneChangedTo="0" flow="40.14"/>
        <edge id="-1214971411#4" sampledSeconds="2.93" traveltime="1.13" overlapTraveltime="1.47" density="0.75" overlapDensity="0.97" laneDensity="0.75" occupancy="0.37" waitingTime="0.00" timeLoss="0.07" speed="14.91" speedRelative="1.07" departed="0" arrived="0" entered="2" left="2" laneChangedFrom="0" laneChangedTo="0" flow="40.17"/>
        <edge id="-1214971411#5" sampledSeconds="4.12" traveltime="1.73" overlapTraveltime="2.06" density="0.75" overlapDensity="0.89" laneDensity="0.75" occupancy="0.38" waitingTime="0.00" timeLoss="0.09" speed="14.92" speedRelative="1.07" departed="0" arrived="0" entered="2" left="2" laneChangedFrom="0" laneChangedTo="0" flow="40.27"/>
        <edge id="-1214971411#6" sampledSeconds="5.10" traveltime="2.21" overlapTraveltime="2.55" density="0.76" overlapDensity="0.88" laneDensity="0.76" occupancy="0.38" waitingTime="0.00" timeLoss="0.20" speed="14.67" speedRelative="1.06" departed="0" arrived="0" entered="2" left="2" laneChangedFrom="0" laneChangedTo="0" flow="40.24"/>
        <edge id="-1214971412" sampledSeconds="1.15" traveltime="0.01" overlapTraveltime="0.38" density="1.24" overlapDensity="32.08" laneDensity="1.24" occupancy="0.62" waitingTime="0.00" timeLoss="0.12" speed="13.58" speedRelative="0.98" departed="0" arrived="0" entered="3" left="3" laneChangedFrom="0" laneChangedTo="0" flow="60.47"/>
        <edge id="-1260679570#0" sampledSeconds="26.74" traveltime="4.67" overlapTraveltime="5.45" density="2.57" overlapDensity="3.00" laneDensity="2.57" occupancy="1.35" waitingTime="0.00" timeLoss="5.70" speed="10.04" speedRelative="0.72" departed="1" arrived="0" entered="4" left="5" laneChangedFrom="0" laneChangedTo="0" flow="92.96"/>
        <edge id="-1260679570#1" sampledSeconds="3.05" traveltime="0.33" overlapTraveltime="0.76" density="2.15" overlapDensity="5.04" laneDensity="2.15" occupancy="1.01" waitingTime="0.00" timeLoss="0.70" speed="10.99" speedRelative="0.79" departed="0" arrived="0" entered="4" left="4" laneChangedFrom="0" laneChangedTo="0" flow="85.08"/>
        <edge id="-1260679953#0" sampledSeconds="4.27" traveltime="1.09" overlapTraveltime="1.42" density="1.13" overlapDensity="1.48" laneDensity="1.13" occupancy="0.57" waitingTime="0.00" timeLoss="0.09" speed="14.81" speedRelative="1.07" departed="0" arrived="0" entered="3" left="3" laneChangedFrom="0" laneChangedTo="0" flow="60.31"/>
        <edge id="-1260679953#1" sampledSeconds="7.52" traveltime="2.17" overlapTraveltime="2.51" density="1.14" overlapDensity="1.31" laneDensity="1.14" occupancy="0.57" waitingTime="0.00" timeLoss="0.18" speed="14.76" speedRelative="1.06" departed="0" arrived="0" entered="3" left="3" laneChangedFrom="0" laneChangedTo="0" flow="60.33"/>
        <edge id="-1260679953#2" sampledSeconds="1.07" traveltime="0.01" overlapTraveltime="0.36" density="1.13" overlapDensity="29.78" laneDensity="1.13" occupancy="0.57" waitingTime="0.00" timeLoss="0.04" speed="14.63" speedRelative="1.05" departed="0" arrived="0" entered="3" left="3" laneChangedFrom="0" laneChangedTo="0" flow="59.42"/>
        <edge id="-1260679953#3" sampledSeconds="7.70" traveltime="2.23" overlapTraveltime="2.57" density="1.13" overlapDensity="1.30" laneDensity="1.13" occupancy="0.57" waitingTime="0.00" timeLoss="0.17" speed="14.79" speedRelative="1.07" departed="0" arrived="0" entered="3" left="3" laneChangedFrom="0" laneChangedTo="0" flow="60.32"/>
        <edge id="-1260679953#4" sampledSeconds="5.02" traveltime="1.33" overlapTraveltime="1.67" density="1.13" overlapDensity="1.42" laneDensity="1.13" occupancy="0.57" waitingTime="0.00" timeLoss="0.12" speed="14.77" speedRelative="1.06" departed="0" arrived="0" entered="3" left="3" laneChangedFrom="0" laneChangedTo="0" flow="60.26"/>
        <edge id="-1260679996#0" sampledSeconds="2.37" traveltime="0.45" overlapTraveltime="0.79" density="1.14" overlapDensity="2.00" laneDensity="1.14" occupancy="0.57" waitingTime="0.00" timeLoss="0.07" speed="14.71" speedRelative="1.06" departed="0" arrived="0" entered="3" left="3" laneChangedFrom="0" laneChangedTo="0" flow="60.47"/>
        <edge id="-1260679996#1" sampledSeconds="1.06" traveltime="0.01" overlapTraveltime="0.35" density="1.15" overlapDensity="29.60" laneDensity="1.15" occupancy="0.57" waitingTime="0.00" timeLoss="0.03" speed="14.72" speedRelative="1.06" departed="0" arrived="0" entered="3" left="3" laneChangedFrom="0" laneChangedTo="0" flow="60.73"/>
        <edge id="-1260679996#2" sampledSeconds="2.87" traveltime="0.62" overlapTraveltime="0.96" density="1.14" overlapDensity="1.76" laneDensity="1.14" occupancy="0.57" waitingTime="0.00" timeLoss="0.07" speed="14.74" speedRelative="1.06" departed="0" arrived="0" entered="3" left="3" laneChangedFrom="0" laneChangedTo="0" flow="60.25"/>
        <edge id="-1260680174#0" sampledSeconds="3.41" traveltime="0.80" overlapTraveltime="1.14" density="1.15" overlapDensity="1.64" laneDensity="1.15" occupancy="0.57" waitingTime="0.00" timeLoss="0.11" speed="14.65" speedRelative="1.05" departed="0" arrived="0" entered="3" left="3" laneChangedFrom="0" laneChangedTo="0" flow="60.62"/>
        <edge id="-1260680174#1" sampledSeconds="1.10" traveltime="0.01" overlapTraveltime="0.37" density="1.20" overlapDensity="30.66" laneDensity="1.20" occupancy="0.59" waitingTime="0.00" timeLoss="0.07" speed="14.21" speedRelative="1.02" departed="0" arrived="0" entered="3" left="3" laneChangedFrom="0" laneChangedTo="0" flow="61.30"/>
        <edge id="-1260682200" sampledSeconds="2.61" traveltime="0.87" overlapTraveltime="1.31" density="1.10" overlapDensity="1.66" laneDensity="1.10" occupancy="0.53" waitingTime="0.00" timeLoss="0.80" speed="10.58" speedRelative="0.76" departed="0" arrived="0" entered="2" left="2" laneChangedFrom="0" laneChangedTo="0" flow="41.90"/>
        <edge id="-1260710648#0" sampledSeconds="3.45" traveltime="0.45" overlapTraveltime="1.15" density="2.53" overlapDensity="6.47" laneDensity="2.53" occupancy="1.19" waitingTime="0.00" timeLoss="0.29" speed="6.94" speedRelative="0.83" departed="0" arrived="0" entered="3" left="3" laneChangedFrom="0" laneChangedTo="0" flow="63.13"/>
        <edge id="-1260710648#1" sampledSeconds="10.07" traveltime="2.58" overlapTraveltime="3.36" density="2.32" overlapDensity="3.02" laneDensity="2.32" occupancy="1.17" waitingTime="0.00" timeLoss="0.71" speed="7.05" speedRelative="0.85" departed="0" arrived="0" entered="3" left="3" laneChangedFrom="0" laneChangedTo="0" flow="58.78"/>
        <edge id="-1260724328" sampledSeconds="17.23" traveltime="16.51" overlapTraveltime="17.23" density="0.77" overlapDensity="0.81" laneDensity="0.77" occupancy="0.39" waitingTime="0.00" timeLoss="0.77" speed="7.22" speedRelative="0.87" departed="0" arrived="0" entered="1" left="1" laneChangedFrom="0" laneChangedTo="0" flow="20.09"/>
        <edge id="-1262420438#0" sampledSeconds="3.99" traveltime="0.37" overlapTraveltime="1.07" density="2.09" overlapDensity="5.71" laneDensity="2.09" occupancy="1.41" waitingTime="0.00" timeLoss="0.15" speed="10.68" speedRelative="0.96" departed="0" arrived="0" entered="4" left="4" laneChangedFrom="0" laneChangedTo="0" flow="80.52"/>
        <edge id="-1262420438#1" sampledSeconds="2.62" traveltime="0.02" overlapTraveltime="0.76" density="2.60" overlapDensity="73.20" laneDensity="2.60" occupancy="1.42" waitingTime="0.00" timeLoss="0.07" speed="10.79" speedRelative="0.97" departed="0" arrived="0" entered="5" left="5" laneChangedFrom="0" laneChangedTo="0" flow="101.09"/>
        <edge id="-1262420438#2" sampledSeconds="13.39" traveltime="2.08" overlapTraveltime="2.70" density="2.70" overlapDensity="3.48" laneDensity="2.70" occupancy="1.70" waitingTime="0.00" timeLoss="0.60" speed="10.42" speedRelative="0.94" departed="0" arrived="0" entered="5" left="5" laneChangedFrom="0" laneChangedTo="0" flow="101.42"/>
        <edge id="-1262420438#3" sampledSeconds="3.42" traveltime="0.02" overlapTraveltime="0.78" density="3.16" overlapDensity="95.60" laneDensity="3.16" occupancy="1.85" waitingTime="0.00" timeLoss="0.40" speed="9.64" speedRelative="0.87" departed="0" arrived="0" entered="5" left="5" laneChangedFrom="0" laneChangedTo="0" flow="109.62"/>
        <edge id="-1262420438#4" sampledSeconds="10.50" traveltime="1.54" overlapTraveltime="2.23" density="3.55" overlapDensity="5.35" laneDensity="3.55" occupancy="2.21" waitingTime="0.00" timeLoss="3.00" speed="7.78" speedRelative="0.70" departed="1" arrived="0" entered="4" left="5" laneChangedFrom="0" laneChangedTo="0" flow="99.52"/>
        <edge id="-1262420438#5" sampledSeconds="5.70" traveltime="1.21" overlapTraveltime="1.94" density="1.60" overlapDensity="2.51" laneDensity="1.60" occupancy="1.16" waitingTime="0.00" timeLoss="0.15" speed="10.52" speedRelative="0.95" departed="0" arrived="0" entered="3" left="3" laneChangedFrom="0" laneChangedTo="0" flow="60.52"/>
        <edge id="-1263072510#1" sampledSeconds="1.92" traveltime="1.24" overlapTraveltime="1.92" density="0.65" overlapDensity="1.01" laneDensity="0.65" occupancy="0.34" waitingTime="0.00" timeLoss="0.07" speed="8.14" speedRelative="0.98" departed="0" arrived="0" entered="1" left="1" laneChangedFrom="0" laneChangedTo="0" flow="19.18"/>
        <edge id="-1263072510#2" sampledSeconds="3.07" traveltime="2.51" overlapTraveltime="3.07" density="0.94" overlapDensity="1.16" laneDensity="0.94" occupancy="0.41" waitingTime="0.00" timeLoss="1.00" speed="6.46" speedRelative="0.78" departed="0" arrived="0" entered="1" left="1" laneChangedFrom="0" laneChangedTo="0" flow="21.97"/>
        <edge id="-1263240996#0" sampledSeconds="3.93" traveltime="3.43" overlapTraveltime="3.93" density="0.57" overlapDensity="0.65" laneDensity="0.57" occupancy="0.28" waitingTime="0.00" timeLoss="0.09" speed="9.84" speedRelative="0.89" departed="0" arrived="0" entered="1" left="1" laneChangedFrom="0" laneChangedTo="0" flow="20.14"/>
        <edge id="-1263240996#1" sampledSeconds="1.82" traveltime="1.31" overlapTraveltime="1.82" density="0.58" overlapDensity="0.80" laneDensity="0.58" occupancy="0.29" waitingTime="0.00" timeLoss="0.06" speed="9.73" speedRelative="0.88" departed="0" arrived="0" entered="1" left="1" laneChangedFrom="0" laneChangedTo="0" flow="20.25"/>
        <edge id="-1263240996#2" sampledSeconds="1.96" traveltime="1.45" overlapTraveltime="1.96" density="0.58" overlapDensity="0.78" laneDensity="0.58" occupancy="0.29" waitingTime="0.00" timeLoss="0.07" speed="9.72" speedRelative="0.87" departed="0" arrived="0" entered="1" left="1" laneChangedFrom="0" laneChangedTo="0" flow="20.18"/>
        <edge id="-1263240996#3" sampledSeconds="1.51" traveltime="0.99" overlapTraveltime="1.51" density="0.58" overlapDensity="0.88" laneDensity="0.58" occupancy="0.29" waitingTime="0.00" timeLoss="0.07" speed="9.63" speedRelative="0.87" departed="0" arrived="0" entered="1" left="1" laneChangedFrom="0" laneChangedTo="0" flow="20.14"/>
        <edge id="-1275070269#0" sampledSeconds="0.77" traveltime="0.03" overlapTraveltime="0.77" density="0.83" overlapDensity="21.43" laneDensity="0.42" occupancy="0.21" waitingTime="0.00" timeLoss="0.05" speed="6.78" speedRelative="0.81" departed="0" arrived="0" entered="1" left="1" laneChangedFrom="0" laneChangedTo="0" flow="20.31"/>
        <edge id="-1275070269#1" sampledSeconds="3.19" traveltime="2.45" overlapTraveltime="3.19" density="0.79" overlapDensity="1.03" laneDensity="0.39" occupancy="0.20" waitingTime="0.00" timeLoss="0.26" speed="7.01" speedRelative="0.84" departed="0" arrived="0" entered="1" left="1" laneChangedFrom="0" laneChangedTo="0" flow="19.91"/>
        <edge id="-129826319#0" sampledSeconds="2.97" traveltime="0.01" overlapTraveltime="0.37" density="3.20" overlapDensity="82.99" laneDensity="3.20" occupancy="1.60" waitingTime="0.00" timeLoss="0.07" speed="14.00" speedRelative="1.01" departed="0" arrived="0" entered="8" left="8" laneChangedFrom="0" laneChangedTo="0" flow="161.15"/>
        <edge id="-129826319#1" sampledSeconds="4.52" traveltime="0.21" overlapTraveltime="0.57" density="3.19" overlapDensity="8.65" laneDensity="3.19" occupancy="1.59" waitingTime="0.00" timeLoss="0.11" speed="14.01" speedRelative="1.01" departed="0" arrived="0" entered="8" left="8" laneChangedFrom="0" laneChangedTo="0" flow="160.79"/>
        <edge id="-129826319#10" sampledSeconds="10.57" traveltime="15.06" overlapTraveltime="15.51" density="0.35" overlapDensity="0.35" laneDensity="0.35" occupancy="0.17" waitingTime="0.00" timeLoss="0.28" speed="11.12" speedRelative="0.80" departed="0" arrived="0" entered="1" left="0" laneChangedFrom="0" laneChangedTo="0" flow="14.12"/>
        <edge id="-129826319#11" sampledSeconds="30.22" traveltime="29.77" overlapTraveltime="30.22" density="0.53" overlapDensity="0.54" laneDensity="0.53" occupancy="0.26" waitingTime="0.00" timeLoss="2.27" speed="10.56" speedRelative="0.76" departed="0" arrived="0" entered="1" left="1" laneChangedFrom="0" laneChangedTo="0" flow="20.13"/>
        <edge id="-129826319#2" sampledSeconds="37.21" traveltime="4.29" overlapTraveltime="4.65" density="3.18" overlapDensity="3.45" laneDensity="3.18" occupancy="1.59" waitingTime="0.00" timeLoss="0.86" speed="14.03" speedRelative="1.01" departed="0" arrived="0" entered="8" left="8" laneChangedFrom="0" laneChangedTo="0" flow="160.81"/>
        <edge id="-129826319#3" sampledSeconds="78.91" traveltime="9.51" overlapTraveltime="9.86" density="3.28" overlapDensity="3.40" laneDensity="3.28" occupancy="1.63" waitingTime="0.00" timeLoss="3.94" speed="13.64" speedRelative="0.98" departed="0" arrived="0" entered="8" left="8" laneChangedFrom="0" laneChangedTo="0" flow="161.11"/>
        <edge id="-129826319#4" sampledSeconds="8.78" traveltime="1.40" overlapTraveltime="1.76" density="1.99" overlapDensity="2.49" laneDensity="1.99" occupancy="0.99" waitingTime="0.00" timeLoss="0.18" speed="14.08" speedRelative="1.01" departed="0" arrived="0" entered="5" left="5" laneChangedFrom="0" laneChangedTo="0" flow="100.63"/>
        <edge id="-129826319#5" sampledSeconds="22.63" traveltime="4.17" overlapTraveltime="4.53" density="1.98" overlapDensity="2.15" laneDensity="1.98" occupancy="0.99" waitingTime="0.00" timeLoss="0.46" speed="14.09" speedRelative="1.01" departed="0" arrived="0" entered="5" left="5" laneChangedFrom="0" laneChangedTo="0" flow="100.48"/>
        <edge id="-129826319#6" sampledSeconds="1.84" traveltime="0.01" overlapTraveltime="0.37" density="1.98" overlapDensity="51.49" laneDensity="1.98" occupancy="0.99" waitingTime="0.00" timeLoss="0.04" speed="14.10" speedRelative="1.02" departed="0" arrived="0" entered="5" left="5" laneChangedFrom="0" laneChangedTo="0" flow="100.50"/>
        <edge id="-129826319#7" sampledSeconds="24.52" traveltime="3.76" overlapTraveltime="4.12" density="2.71" overlapDensity="2.95" laneDensity="2.71" occupancy="1.33" waitingTime="0.00" timeLoss="3.23" speed="12.50" speedRelative="0.90" departed="0" arrived="0" entered="6" left="6" laneChangedFrom="0" laneChangedTo="0" flow="121.99"/>
        <edge id="-129826319#8" sampledSeconds="23.67" traveltime="7.53" overlapTraveltime="7.89" density="1.39" overlapDensity="1.45" laneDensity="1.39" occupancy="0.68" waitingTime="0.00" timeLoss="3.40" speed="12.16" speedRelative="0.88" departed="0" arrived="0" entered="3" left="3" laneChangedFrom="0" laneChangedTo="0" flow="60.74"/>
        <edge id="-129826319#9" sampledSeconds="2.94" traveltime="4.18" overlapTraveltime="4.60" density="1.13" overlapDensity="1.80" laneDensity="1.13" occupancy="0.74" waitingTime="0.00" timeLoss="2.29" speed="3.07" speedRelative="0.22" departed="1" arrived="0" entered="0" left="1" laneChangedFrom="0" laneChangedTo="0" flow="12.48"/>
        <edge id="-129826320#2" sampledSeconds="8.40" traveltime="7.76" overlapTraveltime="8.40" density="0.66" overlapDensity="0.72" laneDensity="0.66" occupancy="0.33" waitingTime="0.00" timeLoss="0.62" speed="8.37" speedRelative="1.00" departed="0" arrived="0" entered="1" left="1" laneChangedFrom="0" laneChangedTo="0" flow="20.01"/>
        <edge id="-129826320#3" sampledSeconds="3.80" traveltime="3.07" overlapTraveltime="3.80" density="0.78" overlapDensity="0.96" laneDensity="0.78" occupancy="0.40" waitingTime="0.00" timeLoss="0.82" speed="7.13" speedRelative="0.86" departed="0" arrived="0" entered="1" left="1" laneChangedFrom="0" laneChangedTo="0" flow="19.93"/>
        <edge id="-129826321#4" sampledSeconds="4.18" traveltime="2.83" overlapTraveltime="4.18" density="0.83" overlapDensity="1.23" laneDensity="0.83" occupancy="0.47" waitingTime="0.00" timeLoss="0.78" speed="5.73" speedRelative="0.69" departed="0" arrived="0" entered="1" left="1" laneChangedFrom="0" laneChangedTo="0" flow="17.18"/>
        <edge id="-129826321#5" sampledSeconds="6.19" traveltime="5.61" overlapTraveltime="6.19" density="0.64" overlapDensity="0.70" laneDensity="0.64" occupancy="0.32" waitingTime="0.00" timeLoss="0.24" speed="8.74" speedRelative="1.05" departed="0" arrived="0" entered="1" left="1" laneChangedFrom="0" laneChangedTo="0" flow="20.06"/>
        <edge id="-129826321#6" sampledSeconds="4.98" traveltime="4.41" overlapTraveltime="4.98" density="0.65" overlapDensity="0.73" laneDensity="0.65" occupancy="0.32" waitingTime="0.00" timeLoss="0.25" speed="8.65" speedRelative="1.04" departed="0" arrived="0" entered="1" left="1" laneChangedFrom="0" laneChangedTo="0" flow="20.16"/>
        <edge id="-129826326#0" sampledSeconds="5.76" traveltime="5.06" overlapTraveltime="5.76" density="0.73" overlapDensity="0.83" laneDensity="0.73" occupancy="0.37" waitingTime="0.00" timeLoss="0.51" speed="7.60" speedRelative="0.91" departed="0" arrived="0" entered="1" left="1" laneChangedFrom="0" laneChangedTo="0" flow="19.95"/>
        <edge id="-129826326#1" sampledSeconds="2.53" traveltime="1.90" overlapTraveltime="2.53" density="0.69" overlapDensity="0.92" laneDensity="0.69" occupancy="0.35" waitingTime="0.00" timeLoss="0.13" speed="8.05" speedRelative="0.97" departed="0" arrived="0" entered="1" left="1" laneChangedFrom="0" laneChangedTo="0" flow="20.06"/>
        <edge id="-129826326#2" sampledSeconds="0.76" traveltime="0.03" overlapTraveltime="0.76" density="0.92" overlapDensity="21.30" laneDensity="0.92" occupancy="0.41" waitingTime="0.00" timeLoss="0.15" speed="6.82" speedRelative="0.82" departed="0" arrived="0" entered="1" left="1" laneChangedFrom="0" laneChangedTo="0" flow="22.70"/>
        <edge id="-129826326#3" sampledSeconds="8.73" traveltime="7.96" overlapTraveltime="8.73" density="0.71" overlapDensity="0.77" laneDensity="0.71" occupancy="0.36" waitingTime="0.00" timeLoss="0.71" speed="7.79" speedRelative="0.93" departed="0" arrived="0" entered="1" left="1" laneChangedFrom="0" laneChangedTo="0" flow="19.81"/>